
                        S T E P       1


                                INCREMENT     1


 displacements (vx,vy,vz) for set LOAD_NODE and time  0.1000000E+01

        11  3.549068E-18 -1.521472E-03 -4.590367E-16
