    1C
    1UUSER                                                              
    1UDATE              21.march.2026                                   
    1UTIME              23:37:58                                        
    1UHOST                                                              
    1UPGM               CalculiX                                        
    1UVERSION           Version 2.22                             
    1UCOMPILETIME       Mon Aug  5 19:15:25 CEST 2024                    
    1UDIR                                                               
    1UDBN                                                               
    1UMAT    1STEEL                                                     
    2C                            44                                     1
 -1        12 0.00000E+00-2.50000E-02-5.00000E-02
 -1        13 0.00000E+00 2.50000E-02-5.00000E-02
 -1        14 0.00000E+00 2.50000E-02 5.00000E-02
 -1        15 0.00000E+00-2.50000E-02 5.00000E-02
 -1        20 1.00000E-01-2.50000E-02-5.00000E-02
 -1        21 1.00000E-01 2.50000E-02-5.00000E-02
 -1        22 1.00000E-01 2.50000E-02 5.00000E-02
 -1        23 1.00000E-01-2.50000E-02 5.00000E-02
 -1        28 2.00000E-01-2.50000E-02-5.00000E-02
 -1        29 2.00000E-01 2.50000E-02-5.00000E-02
 -1        30 2.00000E-01 2.50000E-02 5.00000E-02
 -1        31 2.00000E-01-2.50000E-02 5.00000E-02
 -1        36 3.00000E-01-2.50000E-02-5.00000E-02
 -1        37 3.00000E-01 2.50000E-02-5.00000E-02
 -1        38 3.00000E-01 2.50000E-02 5.00000E-02
 -1        39 3.00000E-01-2.50000E-02 5.00000E-02
 -1        44 4.00000E-01-2.50000E-02-5.00000E-02
 -1        45 4.00000E-01 2.50000E-02-5.00000E-02
 -1        46 4.00000E-01 2.50000E-02 5.00000E-02
 -1        47 4.00000E-01-2.50000E-02 5.00000E-02
 -1        52 5.00000E-01-2.50000E-02-5.00000E-02
 -1        53 5.00000E-01 2.50000E-02-5.00000E-02
 -1        54 5.00000E-01 2.50000E-02 5.00000E-02
 -1        55 5.00000E-01-2.50000E-02 5.00000E-02
 -1        60 6.00000E-01-2.50000E-02-5.00000E-02
 -1        61 6.00000E-01 2.50000E-02-5.00000E-02
 -1        62 6.00000E-01 2.50000E-02 5.00000E-02
 -1        63 6.00000E-01-2.50000E-02 5.00000E-02
 -1        68 7.00000E-01-2.50000E-02-5.00000E-02
 -1        69 7.00000E-01 2.50000E-02-5.00000E-02
 -1        70 7.00000E-01 2.50000E-02 5.00000E-02
 -1        71 7.00000E-01-2.50000E-02 5.00000E-02
 -1        76 8.00000E-01-2.50000E-02-5.00000E-02
 -1        77 8.00000E-01 2.50000E-02-5.00000E-02
 -1        78 8.00000E-01 2.50000E-02 5.00000E-02
 -1        79 8.00000E-01-2.50000E-02 5.00000E-02
 -1        84 9.00000E-01-2.50000E-02-5.00000E-02
 -1        85 9.00000E-01 2.50000E-02-5.00000E-02
 -1        86 9.00000E-01 2.50000E-02 5.00000E-02
 -1        87 9.00000E-01-2.50000E-02 5.00000E-02
 -1        92 1.00000E+00-2.50000E-02-5.00000E-02
 -1        93 1.00000E+00 2.50000E-02-5.00000E-02
 -1        94 1.00000E+00 2.50000E-02 5.00000E-02
 -1        95 1.00000E+00-2.50000E-02 5.00000E-02
 -3
    3C                            10                                     1
 -1         1    1    0    1
 -2        12        20        21        13        15        23        22        14
 -1         2    1    0    1
 -2        20        28        29        21        23        31        30        22
 -1         3    1    0    1
 -2        28        36        37        29        31        39        38        30
 -1         4    1    0    1
 -2        36        44        45        37        39        47        46        38
 -1         5    1    0    1
 -2        44        52        53        45        47        55        54        46
 -1         6    1    0    1
 -2        52        60        61        53        55        63        62        54
 -1         7    1    0    1
 -2        60        68        69        61        63        71        70        62
 -1         8    1    0    1
 -2        68        76        77        69        71        79        78        70
 -1         9    1    0    1
 -2        76        84        85        77        79        87        86        78
 -1        10    1    0    1
 -2        84        92        93        85        87        95        94        86
 -3
    1PSTEP                         1           1           1          
  100CL  101 1.000000000          44                     0    1           1
 -4  DISP        4    1
 -5  D1          1    2    1    0
 -5  D2          1    2    2    0
 -5  D3          1    2    3    0
 -5  ALL         1    2    0    0    1ALL
 -1        12-1.64088E-18-6.90332E-19-1.62481E-06
 -1        13 1.64088E-18 9.63617E-19 1.62481E-06
 -1        14-1.64088E-18-1.02930E-18-1.62481E-06
 -1        15 1.64088E-18 7.56067E-19 1.62481E-06
 -1        20-1.08297E-05-2.19071E-05-1.54093E-06
 -1        21 1.08297E-05-2.19071E-05 1.54093E-06
 -1        22 1.08297E-05-2.19071E-05-1.54093E-06
 -1        23-1.08297E-05-2.19071E-05 1.54093E-06
 -1        28-2.05434E-05-8.49010E-05-1.37139E-06
 -1        29 2.05434E-05-8.49010E-05 1.37139E-06
 -1        30 2.05434E-05-8.49010E-05-1.37139E-06
 -1        31-2.05434E-05-8.49010E-05 1.37139E-06
 -1        36-2.91148E-05-1.84465E-04-1.20000E-06
 -1        37 2.91148E-05-1.84465E-04 1.20000E-06
 -1        38 2.91148E-05-1.84465E-04-1.20000E-06
 -1        39-2.91148E-05-1.84465E-04 1.20000E-06
 -1        44-3.65434E-05-3.16029E-04-1.02857E-06
 -1        45 3.65434E-05-3.16029E-04 1.02857E-06
 -1        46 3.65434E-05-3.16029E-04-1.02857E-06
 -1        47-3.65434E-05-3.16029E-04 1.02857E-06
 -1        52-4.28291E-05-4.75022E-04-8.57143E-07
 -1        53 4.28291E-05-4.75022E-04 8.57143E-07
 -1        54 4.28291E-05-4.75022E-04-8.57143E-07
 -1        55-4.28291E-05-4.75022E-04 8.57143E-07
 -1        60-4.79720E-05-6.56872E-04-6.85714E-07
 -1        61 4.79720E-05-6.56872E-04 6.85714E-07
 -1        62 4.79720E-05-6.56872E-04-6.85714E-07
 -1        63-4.79720E-05-6.56872E-04 6.85714E-07
 -1        68-5.19720E-05-8.57007E-04-5.14287E-07
 -1        69 5.19720E-05-8.57007E-04 5.14287E-07
 -1        70 5.19720E-05-8.57007E-04-5.14287E-07
 -1        71-5.19720E-05-8.57007E-04 5.14287E-07
 -1        76-5.48291E-05-1.07086E-03-3.42898E-07
 -1        77 5.48291E-05-1.07086E-03 3.42898E-07
 -1        78 5.48291E-05-1.07086E-03-3.42898E-07
 -1        79-5.48291E-05-1.07086E-03 3.42898E-07
 -1        84-5.65440E-05-1.29385E-03-1.73351E-07
 -1        85 5.65440E-05-1.29385E-03 1.73351E-07
 -1        86 5.65440E-05-1.29385E-03-1.73351E-07
 -1        87-5.65440E-05-1.29385E-03 1.73351E-07
 -1        92-5.71429E-05-1.52147E-03-8.94778E-08
 -1        93 5.71429E-05-1.52147E-03 8.94778E-08
 -1        94 5.71429E-05-1.52147E-03-8.94778E-08
 -1        95-5.71429E-05-1.52147E-03 8.94778E-08
 -3
    1PSTEP                         2           1           1          
  100CL  101 1.000000000          44                     0    1           1
 -4  STRESS      6    1
 -5  SXX         1    4    1    1
 -5  SYY         1    4    2    2
 -5  SZZ         1    4    3    3
 -5  SXY         1    4    1    2
 -5  SYZ         1    4    2    3
 -5  SZX         1    4    3    1
 -1        12-2.26982E+07 1.01614E+05 4.51604E+04-1.99992E+05 1.35485E+05 6.77426E+04
 -1        13 2.26982E+07-1.01614E+05-4.51604E+04-1.99992E+05 1.35485E+05-6.77426E+04
 -1        14 2.26982E+07-1.01614E+05-4.51604E+04-1.99992E+05-1.35485E+05 6.77426E+04
 -1        15-2.26982E+07 1.01614E+05 4.51604E+04-1.99992E+05-1.35485E+05-6.77426E+04
 -1        20-2.15480E+07 5.18984E+04 2.30653E+04-1.99992E+05 6.91979E+04 1.02342E+05
 -1        21 2.15480E+07-5.18984E+04-2.30653E+04-1.99992E+05 6.91979E+04-1.02342E+05
 -1        22 2.15480E+07-5.18984E+04-2.30653E+04-1.99992E+05-6.91979E+04 1.02342E+05
 -1        23-2.15480E+07 5.18984E+04 2.30653E+04-1.99992E+05-6.91979E+04-1.02342E+05
 -1        28-1.91988E+07 1.11490E+03 4.95495E+02-1.99992E+05 1.48653E+03 1.37684E+05
 -1        29 1.91988E+07-1.11490E+03-4.95495E+02-1.99992E+05 1.48653E+03-1.37684E+05
 -1        30 1.91988E+07-1.11490E+03-4.95495E+02-1.99992E+05-1.48653E+03 1.37684E+05
 -1        31-1.91988E+07 1.11490E+03 4.95495E+02-1.99992E+05-1.48653E+03-1.37684E+05
 -1        36-1.67999E+07 2.39506E+01 1.06444E+01-1.99992E+05 3.19341E+01 1.38443E+05
 -1        37 1.67999E+07-2.39506E+01-1.06444E+01-1.99992E+05 3.19341E+01-1.38443E+05
 -1        38 1.67999E+07-2.39506E+01-1.06444E+01-1.99992E+05-3.19341E+01 1.38443E+05
 -1        39-1.67999E+07 2.39506E+01 1.06444E+01-1.99992E+05-3.19341E+01-1.38443E+05
 -1        44-1.43999E+07 5.14277E-01 2.28560E-01-1.99992E+05 6.85701E-01 1.38459E+05
 -1        45 1.43999E+07-5.14274E-01-2.28559E-01-1.99992E+05 6.85701E-01-1.38459E+05
 -1        46 1.43999E+07-5.14277E-01-2.28560E-01-1.99992E+05-6.85701E-01 1.38459E+05
 -1        47-1.43999E+07 5.14274E-01 2.28560E-01-1.99992E+05-6.85701E-01-1.38459E+05
 -1        52-1.19999E+07-1.24089E-06-7.04487E-07-1.99992E+05-9.60106E-07 1.38460E+05
 -1        53 1.19999E+07-9.00414E-07-9.72854E-07-1.99992E+05-6.40459E-07-1.38460E+05
 -1        54 1.19999E+07 9.29736E-07 7.35192E-07-1.99992E+05 8.76753E-07 1.38460E+05
 -1        55-1.19999E+07-8.46732E-07-2.84432E-07-1.99992E+05 5.85511E-07-1.38460E+05
 -1        60-9.59994E+06-5.14272E-01-2.28558E-01-1.99992E+05-6.85701E-01 1.38459E+05
 -1        61 9.59994E+06 5.14280E-01 2.28560E-01-1.99992E+05-6.85702E-01-1.38459E+05
 -1        62 9.59994E+06 5.14274E-01 2.28560E-01-1.99992E+05 6.85703E-01 1.38459E+05
 -1        63-9.59994E+06-5.14279E-01-2.28561E-01-1.99992E+05 6.85703E-01-1.38459E+05
 -1        68-7.19998E+06-2.39506E+01-1.06444E+01-1.99992E+05-3.19341E+01 1.38443E+05
 -1        69 7.19998E+06 2.39506E+01 1.06444E+01-1.99992E+05-3.19341E+01-1.38443E+05
 -1        70 7.19998E+06 2.39506E+01 1.06444E+01-1.99992E+05 3.19341E+01 1.38443E+05
 -1        71-7.19998E+06-2.39506E+01-1.06444E+01-1.99992E+05 3.19341E+01-1.38443E+05
 -1        76-4.80108E+06-1.11490E+03-4.95495E+02-1.99992E+05-1.48653E+03 1.37684E+05
 -1        77 4.80108E+06 1.11490E+03 4.95495E+02-1.99992E+05-1.48653E+03-1.37684E+05
 -1        78 4.80108E+06 1.11490E+03 4.95495E+02-1.99992E+05 1.48653E+03 1.37684E+05
 -1        79-4.80108E+06-1.11490E+03-4.95495E+02-1.99992E+05 1.48653E+03-1.37684E+05
 -1        84-2.45188E+06-5.18984E+04-2.30653E+04-1.99992E+05-6.91979E+04 1.02342E+05
 -1        85 2.45188E+06 5.18984E+04 2.30653E+04-1.99992E+05-6.91979E+04-1.02342E+05
 -1        86 2.45188E+06 5.18984E+04 2.30653E+04-1.99992E+05 6.91979E+04 1.02342E+05
 -1        87-2.45188E+06-5.18984E+04-2.30653E+04-1.99992E+05 6.91979E+04-1.02342E+05
 -1        92-1.30161E+06-1.01614E+05-4.51604E+04-1.99992E+05-1.35485E+05 6.77426E+04
 -1        93 1.30161E+06 1.01614E+05 4.51604E+04-1.99992E+05-1.35485E+05-6.77426E+04
 -1        94 1.30161E+06 1.01614E+05 4.51604E+04-1.99992E+05 1.35485E+05 6.77426E+04
 -1        95-1.30161E+06-1.01614E+05-4.51604E+04-1.99992E+05 1.35485E+05-6.77426E+04
 -3
    1PSTEP                         3           1           1          
  100CL  101 1.000000000          44                     0    1           1
 -4  TOSTRAIN    6    1
 -5  EXX         1    4    1    1
 -5  EYY         1    4    2    2
 -5  EZZ         1    4    3    3
 -5  EXY         1    4    1    2
 -5  EYZ         1    4    2    3
 -5  EZX         1    4    3    1
 -1        12-1.08297E-04 3.28454E-05 3.24960E-05-1.23805E-06 8.38718E-07 4.19359E-07
 -1        13 1.08297E-04-3.28454E-05-3.24960E-05-1.23805E-06 8.38718E-07-4.19359E-07
 -1        14 1.08297E-04-3.28454E-05-3.24960E-05-1.23805E-06-8.38718E-07 4.19359E-07
 -1        15-1.08297E-04 3.28454E-05 3.24960E-05-1.23805E-06-8.38718E-07-4.19359E-07
 -1        20-1.02716E-04 3.09970E-05 3.08185E-05-1.23805E-06 4.28368E-07 6.33543E-07
 -1        21 1.02716E-04-3.09970E-05-3.08185E-05-1.23805E-06 4.28368E-07-6.33543E-07
 -1        22 1.02716E-04-3.09970E-05-3.08185E-05-1.23805E-06-4.28368E-07 6.33543E-07
 -1        23-1.02716E-04 3.09970E-05 3.08185E-05-1.23805E-06-4.28368E-07-6.33543E-07
 -1        28-9.14250E-05 2.74314E-05 2.74276E-05-1.23805E-06 9.20233E-09 8.52328E-07
 -1        29 9.14250E-05-2.74314E-05-2.74276E-05-1.23805E-06 9.20233E-09-8.52328E-07
 -1        30 9.14250E-05-2.74314E-05-2.74276E-05-1.23805E-06-9.20233E-09 8.52328E-07
 -1        31-9.14250E-05 2.74314E-05 2.74276E-05-1.23805E-06-9.20233E-09-8.52328E-07
 -1        36-7.99994E-05 2.39999E-05 2.39998E-05-1.23805E-06 1.97687E-10 8.57028E-07
 -1        37 7.99994E-05-2.39999E-05-2.39998E-05-1.23805E-06 1.97687E-10-8.57028E-07
 -1        38 7.99994E-05-2.39999E-05-2.39998E-05-1.23805E-06-1.97687E-10 8.57028E-07
 -1        39-7.99994E-05 2.39999E-05 2.39998E-05-1.23805E-06-1.97687E-10-8.57028E-07
 -1        44-6.85710E-05 2.05713E-05 2.05713E-05-1.23805E-06 4.24482E-12 8.57129E-07
 -1        45 6.85710E-05-2.05713E-05-2.05713E-05-1.23805E-06 4.24481E-12-8.57129E-07
 -1        46 6.85710E-05-2.05713E-05-2.05713E-05-1.23805E-06-4.24482E-12 8.57129E-07
 -1        47-6.85710E-05 2.05713E-05 2.05713E-05-1.23805E-06-4.24481E-12-8.57129E-07
 -1        52-5.71425E-05 1.71428E-05 1.71428E-05-1.23805E-06-5.94363E-18 8.57131E-07
 -1        53 5.71425E-05-1.71428E-05-1.71428E-05-1.23805E-06-3.96507E-18-8.57131E-07
 -1        54 5.71425E-05-1.71428E-05-1.71428E-05-1.23805E-06 5.42736E-18 8.57131E-07
 -1        55-5.71425E-05 1.71428E-05 1.71428E-05-1.23805E-06 3.62435E-18-8.57131E-07
 -1        60-4.57140E-05 1.37142E-05 1.37142E-05-1.23805E-06-4.24482E-12 8.57129E-07
 -1        61 4.57140E-05-1.37142E-05-1.37142E-05-1.23805E-06-4.24482E-12-8.57129E-07
 -1        62 4.57140E-05-1.37142E-05-1.37142E-05-1.23805E-06 4.24483E-12 8.57129E-07
 -1        63-4.57140E-05 1.37142E-05 1.37142E-05-1.23805E-06 4.24483E-12-8.57129E-07
 -1        68-3.42856E-05 1.02856E-05 1.02857E-05-1.23805E-06-1.97687E-10 8.57028E-07
 -1        69 3.42856E-05-1.02856E-05-1.02857E-05-1.23805E-06-1.97687E-10-8.57028E-07
 -1        70 3.42856E-05-1.02856E-05-1.02857E-05-1.23805E-06 1.97687E-10 8.57028E-07
 -1        71-3.42856E-05 1.02856E-05 1.02857E-05-1.23805E-06 1.97687E-10-8.57028E-07
 -1        76-2.28600E-05 6.85409E-06 6.85793E-06-1.23805E-06-9.20233E-09 8.52328E-07
 -1        77 2.28600E-05-6.85409E-06-6.85793E-06-1.23805E-06-9.20233E-09-8.52328E-07
 -1        78 2.28600E-05-6.85409E-06-6.85793E-06-1.23805E-06 9.20233E-09 8.52328E-07
 -1        79-2.28600E-05 6.85409E-06 6.85793E-06-1.23805E-06 9.20233E-09-8.52328E-07
 -1        84-1.15685E-05 3.28851E-06 3.46700E-06-1.23805E-06-4.28368E-07 6.33543E-07
 -1        85 1.15685E-05-3.28851E-06-3.46700E-06-1.23805E-06-4.28368E-07-6.33543E-07
 -1        86 1.15685E-05-3.28851E-06-3.46700E-06-1.23805E-06 4.28368E-07 6.33543E-07
 -1        87-1.15685E-05 3.28851E-06 3.46700E-06-1.23805E-06 4.28368E-07-6.33543E-07
 -1        92-5.98845E-06 1.44008E-06 1.78955E-06-1.23805E-06-8.38718E-07 4.19359E-07
 -1        93 5.98845E-06-1.44008E-06-1.78955E-06-1.23805E-06-8.38718E-07-4.19359E-07
 -1        94 5.98845E-06-1.44008E-06-1.78955E-06-1.23805E-06 8.38718E-07 4.19359E-07
 -1        95-5.98845E-06 1.44008E-06 1.78955E-06-1.23805E-06 8.38718E-07-4.19359E-07
 -3
    1PSTEP                         4           1           1          
  100CL  101 1.000000000          44                     0    1           1
 -4  FORC        4    1
 -5  F1          1    2    1    0
 -5  F2          1    2    2    0
 -5  F3          1    2    3    0
 -5  ALL         1    2    0    0    1ALL
 -1        12 1.00000E+04 2.50000E+02-3.20659E-11
 -1        13-2.20675E-09 2.50000E+02 1.25000E+02
 -1        14-1.00000E+04 2.50000E+02 1.25000E+02
 -1        15 1.00000E+04 2.50000E+02-2.35838E-11
 -1        20-1.26055E-12-1.66880E-10 9.79394E-12
 -1        21 6.51035E-13-5.00311E-11-1.72626E-11
 -1        22-1.47242E-11 1.28747E-10 1.27898E-11
 -1        23 2.19338E-11-1.15925E-10-3.81029E-13
 -1        28 1.89413E-11-9.79719E-11 2.64643E-10
 -1        29 1.44562E-10-3.75353E-10 1.02247E-11
 -1        30 5.89271E-11-2.59645E-10-6.76152E-11
 -1        31 2.38358E-10 5.08635E-10 7.14531E-11
 -1        36 8.22882E-11-1.64200E-10 3.28505E-10
 -1        37-3.05551E-11-4.33232E-10 2.30251E-11
 -1        38-1.60316E-12-1.01758E-09-4.16001E-10
 -1        39 4.87155E-11 4.98616E-10 2.13271E-10
 -1        44 8.11331E-11-6.35926E-10 2.05908E-10
 -1        45 1.71068E-10 6.61087E-10 2.70823E-11
 -1        46 3.16112E-10-2.25685E-09-1.90411E-10
 -1        47-1.99005E-10 1.50923E-09-6.58551E-10
 -1        52-4.33986E-10-9.04438E-10 4.69545E-10
 -1        53-6.63123E-11-1.81953E-09 4.19728E-10
 -1        54-6.03961E-10-2.13279E-09-7.37959E-10
 -1        55-9.33706E-11 8.39345E-10-4.32186E-10
 -1        60 8.59026E-10-9.49191E-09-2.31385E-09
 -1        61-1.77534E-10 6.35099E-10 1.20649E-09
 -1        62 3.63130E-10-2.13675E-09 2.86168E-10
 -1        63-4.06351E-11-4.01467E-10-1.23048E-09
 -1        68 1.30815E-09-7.94103E-11 6.02874E-10
 -1        69 1.95732E-10-6.68508E-09-8.54474E-10
 -1        70-7.16015E-10-2.32895E-09-1.09615E-09
 -1        71 1.49537E-09 1.52969E-09 1.49371E-10
 -1        76-5.90394E-12-8.04927E-10 4.04771E-10
 -1        77-2.26664E-10-1.50438E-08-2.16527E-10
 -1        78-1.50521E-09-6.57636E-09-1.63364E-09
 -1        79 1.10624E-09 3.94769E-09-2.61234E-09
 -1        84 1.03923E-09 7.95526E-09 2.70790E-09
 -1        85 3.04551E-09-1.07045E-08 7.31990E-10
 -1        86 1.97888E-09-1.10004E-08-1.26847E-09
 -1        87 1.24468E-09-3.45797E-09-1.72117E-09
 -1        92-3.80051E-09-2.50000E+02 4.80537E-09
 -1        93 3.17897E-11-2.50000E+02 3.60849E-11
 -1        94-5.35135E-10-2.50000E+02-1.76883E-09
 -1        95-9.85703E-10-2.50000E+02-3.83822E-11
 -3
    1PSTEP                         5           1           1          
  100CL  101 1.000000000          44                     0    1           1
 -4  ERROR       1    1
 -5  STR(%)      1    1    0    0
 -1        12 1.21710E+02
 -1        13 1.21710E+02
 -1        14 1.21710E+02
 -1        15 1.21710E+02
 -1        20 1.21710E+02
 -1        21 1.21710E+02
 -1        22 1.21710E+02
 -1        23 1.21710E+02
 -1        28 1.21626E+02
 -1        29 1.21626E+02
 -1        30 1.21626E+02
 -1        31 1.21626E+02
 -1        36 1.21635E+02
 -1        37 1.21635E+02
 -1        38 1.21635E+02
 -1        39 1.21635E+02
 -1        44 1.21643E+02
 -1        45 1.21643E+02
 -1        46 1.21643E+02
 -1        47 1.21643E+02
 -1        52 1.21648E+02
 -1        53 1.21648E+02
 -1        54 1.21648E+02
 -1        55 1.21648E+02
 -1        60 1.21648E+02
 -1        61 1.21648E+02
 -1        62 1.21648E+02
 -1        63 1.21648E+02
 -1        68 1.21638E+02
 -1        69 1.21638E+02
 -1        70 1.21638E+02
 -1        71 1.21638E+02
 -1        76 1.21567E+02
 -1        77 1.21567E+02
 -1        78 1.21567E+02
 -1        79 1.21567E+02
 -1        84 1.21111E+02
 -1        85 1.21111E+02
 -1        86 1.21111E+02
 -1        87 1.21111E+02
 -1        92 1.07986E+02
 -1        93 1.07986E+02
 -1        94 1.07986E+02
 -1        95 1.07986E+02
 -3
 9999
