    1C
    1UHexCantileverBeam                                                 
    1UUSER                                                              
    1UDATE              21.march.2026                                   
    1UTIME              23:48:55                                        
    1UHOST                                                              
    1UPGM               CalculiX                                        
    1UVERSION           Version 2.22                             
    1UCOMPILETIME       Mon Aug  5 19:15:25 CEST 2024                    
    1UDIR                                                               
    1UDBN                                                               
    1UMAT    1MAT_STEEL                                                 
    2C                            20                                     1
 -1         1 0.00000E+00 0.00000E+00 0.00000E+00
 -1         2 1.00000E+01 0.00000E+00 0.00000E+00
 -1         3 1.00000E+01 1.00000E+00 0.00000E+00
 -1         4 0.00000E+00 1.00000E+00 0.00000E+00
 -1         5 0.00000E+00 0.00000E+00 1.00000E+00
 -1         6 1.00000E+01 0.00000E+00 1.00000E+00
 -1         7 1.00000E+01 1.00000E+00 1.00000E+00
 -1         8 0.00000E+00 1.00000E+00 1.00000E+00
 -1         9 5.00000E+00 0.00000E+00 0.00000E+00
 -1        10 1.00000E+01 5.00000E-01 0.00000E+00
 -1        11 5.00000E+00 1.00000E+00 0.00000E+00
 -1        12 0.00000E+00 5.00000E-01 0.00000E+00
 -1        13 5.00000E+00 0.00000E+00 1.00000E+00
 -1        14 1.00000E+01 5.00000E-01 1.00000E+00
 -1        15 5.00000E+00 1.00000E+00 1.00000E+00
 -1        16 0.00000E+00 5.00000E-01 1.00000E+00
 -1        17 0.00000E+00 0.00000E+00 5.00000E-01
 -1        18 1.00000E+01 0.00000E+00 5.00000E-01
 -1        19 1.00000E+01 1.00000E+00 5.00000E-01
 -1        20 0.00000E+00 1.00000E+00 5.00000E-01
 -3
    3C                             1                                     1
 -1         1    4    0    1
 -2         1         2         3         4         5         6         7         8         9        10
 -2        11        12        17        18        19        20        13        14        15        16
 -3
    1PSTEP                         1           1           1          
  100CL  101 1.000000000          20                     0    1           1
 -4  DISP        4    1
 -5  D1          1    2    1    0
 -5  D2          1    2    2    0
 -5  D3          1    2    3    0
 -5  ALL         1    2    0    0    1ALL
 -1         1 0.00000E+00 0.00000E+00 0.00000E+00
 -1         2-1.78158E+00-4.92815E+12 4.92815E+12
 -1         3-3.84938E+00 4.92815E+12 4.92815E+12
 -1         4 0.00000E+00 0.00000E+00 0.00000E+00
 -1         5 0.00000E+00 0.00000E+00 0.00000E+00
 -1         6 3.83437E+00-4.92815E+12-4.92815E+12
 -1         7 1.76142E+00 4.92815E+12-4.92815E+12
 -1         8 0.00000E+00 0.00000E+00 0.00000E+00
 -1         9-1.27242E+00-2.46407E+12 2.46407E+12
 -1        10-2.82563E+00 1.51141E+01-2.46407E+12
 -1        11-2.89541E+00 2.46407E+12 2.46407E+12
 -1        12 0.00000E+00 0.00000E+00 0.00000E+00
 -1        13 2.88814E+00-2.46407E+12-2.46407E+12
 -1        14 2.80826E+00 1.37143E+01 2.46407E+12
 -1        15 1.26670E+00 2.46407E+12-2.46407E+12
 -1        16 0.00000E+00 0.00000E+00 0.00000E+00
 -1        17 0.00000E+00 0.00000E+00 0.00000E+00
 -1        18 1.03080E+00 2.46407E+12-3.81406E+01
 -1        19-1.04854E+00-2.46407E+12-3.67379E+01
 -1        20 0.00000E+00 0.00000E+00 0.00000E+00
 -3
    1PSTEP                         2           1           1          
  100CL  101 1.000000000          20                     0    1           1
 -4  STRESS      6    1
 -5  SXX         1    4    1    1
 -5  SYY         1    4    2    2
 -5  SZZ         1    4    3    3
 -5  SXY         1    4    1    2
 -5  SYZ         1    4    2    3
 -5  SZX         1    4    3    1
 -1         1-8.02730E+04 2.40545E+03-3.81486E+04 4.19603E+03 8.45946E+03-8.11637E+03
 -1         2 7.17732E+02-1.72968E+02 2.06870E+04 7.33162E+03-3.88191E+03-7.25321E+03
 -1         3 1.30279E+04 1.79925E+04 2.37772E+04 3.61049E+03 9.46986E+03 3.97858E+03
 -1         4-1.88219E+05-3.40258E+04-5.14328E+04 1.15128E+04-2.08099E+04 1.92821E+03
 -1         5 1.87576E+05 3.30213E+04 5.12736E+04-9.83214E+02 2.08774E+04-1.09194E+04
 -1         6-1.38468E+04-1.68738E+04-2.65126E+04-6.49846E+03-1.01880E+04-5.89921E+03
 -1         7-4.79914E+02 1.11985E+03-1.82119E+04-2.79820E+03 5.14650E+03 2.54678E+03
 -1         8 8.04241E+04-2.70864E+03 3.91424E+04-8.32239E+03-9.07333E+03 4.82670E+03
 -1         9-3.97776E+04 1.11624E+03-8.73080E+03 5.76382E+03 2.28878E+03-7.68479E+03
 -1        10 6.87281E+03 8.90976E+03 2.22321E+04 5.47106E+03 2.79398E+03-1.63732E+03
 -1        11-8.75957E+04-8.01665E+03-1.38278E+04 7.56167E+03-5.67004E+03 2.95340E+03
 -1        12-1.34246E+05-1.58102E+04-4.47907E+04 7.85443E+03-6.17524E+03-3.09408E+03
 -1        13 8.68644E+04 8.07378E+03 1.23805E+04-3.74084E+03 5.34468E+03-8.40933E+03
 -1        14-7.16338E+03-7.87696E+03-2.23622E+04-4.64833E+03-2.52074E+03-1.67622E+03
 -1        15 3.99721E+04-7.94396E+02 1.04653E+04-5.56029E+03-1.96342E+03 3.68674E+03
 -1        16 1.34000E+05 1.51563E+04 4.52080E+04-4.65280E+03 5.90201E+03-3.04637E+03
 -1        17 5.36513E+04 1.77134E+04 6.56251E+03 1.60641E+03 1.46684E+04-9.51790E+03
 -1        18-6.56456E+03-8.52337E+03-2.91282E+03 4.16582E+02-7.03495E+03-6.57621E+03
 -1        19 6.27399E+03 9.55617E+03 2.78264E+03 4.06148E+02 7.30818E+03 3.26268E+03
 -1        20-5.38976E+04-1.83672E+04-6.14519E+03 1.59522E+03-1.49416E+04 3.37746E+03
 -3
    1PSTEP                         3           1           1          
  100CL  101 1.000000000          20                     0    1           1
 -4  TOSTRAIN    6    1
 -5  EXX         1    4    1    1
 -5  EYY         1    4    2    2
 -5  EZZ         1    4    3    3
 -5  EXY         1    4    1    2
 -5  EYZ         1    4    2    3
 -5  EZX         1    4    3    1
 -1         1-3.31191E-01 1.80628E-01-7.04205E-02 2.59754E-02 5.23681E-02-5.02442E-02
 -1         2-2.58879E-02-3.14018E-02 9.77311E-02 4.53862E-02-2.40309E-02-4.49009E-02
 -1         3 2.36663E-03 3.30999E-02 6.89097E-02 2.23507E-02 5.86230E-02 2.46293E-02
 -1         4-7.74199E-01 1.80333E-01 7.25750E-02 7.12699E-02-1.28823E-01 1.19366E-02
 -1         5 7.72796E-01-1.83969E-01-7.09787E-02-6.08656E-03 1.29241E-01-6.75965E-02
 -1         6-3.95679E-03-2.26949E-02-8.23639E-02-4.02285E-02-6.30685E-02-3.65189E-02
 -1         7 2.21319E-02 3.20352E-02-8.76374E-02-1.73222E-02 3.18593E-02 1.57658E-02
 -1         8 3.30924E-01-1.83708E-01 7.53702E-02-5.15196E-02-5.61683E-02 2.98796E-02
 -1         9-1.78539E-01 7.46132E-02 1.36553E-02 3.56808E-02 1.41686E-02-4.75725E-02
 -1        10-1.17607E-02 8.49050E-04 8.33204E-02 3.38684E-02 1.72960E-02-1.01358E-02
 -1        11-3.85916E-01 1.06716E-01 7.07424E-02 4.68103E-02-3.51003E-02 1.82829E-02
 -1        12-5.52695E-01 1.80480E-01 1.07729E-03 4.86227E-02-3.82277E-02-1.91538E-02
 -1        13 3.84420E-01-1.03332E-01-7.66713E-02-2.31576E-02 3.30861E-02-5.20577E-02
 -1        14 9.08754E-03 4.67011E-03-8.50007E-02-2.87754E-02-1.56046E-02-1.03766E-02
 -1        15 1.76528E-01-7.58362E-02-6.13360E-03-3.44209E-02-1.21545E-02 2.28227E-02
 -1        16 5.51860E-01-1.83838E-01 2.19575E-03-2.88031E-02 3.65362E-02-1.88585E-02
 -1        17 2.20803E-01-1.67029E-03-7.06996E-02 9.94442E-03 9.08044E-02-5.89204E-02
 -1        18-1.49224E-02-2.70484E-02 7.68359E-03 2.57884E-03-4.35497E-02-4.07099E-02
 -1        19 1.22493E-02 3.25675E-02-9.36383E-03 2.51425E-03 4.52411E-02 2.01975E-02
 -1        20-2.21637E-01-1.68753E-03 7.39726E-02 9.87519E-03-9.24959E-02 2.09081E-02
 -3
    1PSTEP                         4           1           1          
  100CL  101 1.000000000          20                     0    1           1
 -4  FORC        4    1
 -5  F1          1    2    1    0
 -5  F2          1    2    2    0
 -5  F3          1    2    3    0
 -5  ALL         1    2    0    0    1ALL
 -1         1 2.91226E+03-9.58227E+03 2.48345E+04
 -1         2-7.59136E+01-1.92984E+02-4.15856E+02
 -1         3 2.13839E+01 8.13986E+02 8.75871E+02
 -1         4 6.92710E+03-1.04460E+04 2.52886E+04
 -1         5-7.03616E+03-9.69288E+03 2.50805E+04
 -1         6 2.66138E+01 2.94909E+02-3.96449E+02
 -1         7-3.77561E+00 4.82531E+01 1.06872E+03
 -1         8-2.82898E+03-9.49805E+03 2.50652E+04
 -1         9 6.01065E+01-4.55424E+02-5.92239E+02
 -1        10 2.23146E+01 8.01507E+02-5.80818E+01
 -1        11 2.19820E+01 9.84570E+02-3.62297E+02
 -1        12 1.37613E+04 2.93475E+04 2.53861E+04
 -1        13-7.19714E+01 2.20305E+02-4.87216E+01
 -1        14-7.61769E+01-2.18164E+02-4.91376E+02
 -1        15 4.65372E+00 4.35204E+01 6.09481E+01
 -1        16-1.36354E+04 3.00731E+04 2.60535E+04
 -1        17-5.83418E+03-1.05925E+04-7.29575E+04
 -1        18-7.80871E+01-9.48571E+02-9.49243E+02
 -1        19 2.20433E+01 1.07076E+01-1.52601E+03
 -1        20 5.86086E+03-1.10115E+04-7.59161E+04
 -3
    1PSTEP                         5           1           1          
  100CL  101 1.000000000          20                     0    1           1
 -4  ERROR       1    1
 -5  STR(%)      1    1    0    0
 -1         1 7.12060E+01
 -1         2 7.12060E+01
 -1         3 7.12060E+01
 -1         4 7.12060E+01
 -1         5 7.12060E+01
 -1         6 7.12060E+01
 -1         7 7.12060E+01
 -1         8 7.12060E+01
 -1         9 7.12060E+01
 -1        10 7.12060E+01
 -1        11 7.12060E+01
 -1        12 7.12060E+01
 -1        13 7.12060E+01
 -1        14 7.12060E+01
 -1        15 7.12060E+01
 -1        16 7.12060E+01
 -1        17 7.12060E+01
 -1        18 7.12060E+01
 -1        19 7.12060E+01
 -1        20 7.12060E+01
 -3
 9999
